# LAMMPS data file written by OVITO Basic 3.10.6

900 atoms
1 atom types

0.0 16.9065490001 xlo xhi
0.0 16.9065489999 ylo yhi
0.0 16.906548 zlo zhi
-5.0008564142e-05 2.9032094602e-05 -1.8911988845e-05 xy xz yz

Masses

1 12.011


Atoms  # atomic

1 1 13.1136498417 12.4363896235 14.0786654573
2 1 2.1772237711 14.2551054729 10.8188111457
3 1 12.695117784 16.192039116 12.3038899299
4 1 0.0721775765 10.2700503555 14.2429752945
5 1 15.5460568177 11.8579097054 14.1031647361
6 1 14.8801297153 16.0008317386 14.7725186405
7 1 15.0911303525 14.1605162635 16.5100928307
8 1 0.3232968111 14.5636893043 14.5177606313
9 1 1.6174004078 0.1508562897 11.2643250597
10 1 16.4889937861 13.7728879053 13.4029502951
11 1 1.744119687 0.933953599 13.5354078577
12 1 4.0668643168 1.5299201033 13.4892404708
13 1 0.1786862141 15.1132324332 16.6513292873
14 1 1.4196197866 12.708929202 15.9618261589
15 1 13.7164095488 16.0049709014 15.5886267918
16 1 15.5351464153 16.7919309502 0.3923376641
17 1 12.9849325013 3.8363623316 11.863535049
18 1 14.2698591096 14.1262733053 0.7261854177
19 1 14.3404370442 16.6823730086 1.1066515067
20 1 12.5467727519 2.4981763974 14.3892791508
21 1 0.8763144982 0.0603867011 16.6136983547
22 1 13.5303157784 1.4757253458 0.0106582965
23 1 14.7573318182 1.8537305217 16.3649274613
24 1 4.7975245044 16.0559656432 12.8455774185
25 1 16.7984499628 16.5355446118 12.9764956399
26 1 0.1508639009 2.4640282122 10.6103217936
27 1 14.8824975913 1.9123756399 14.9875433878
28 1 16.8288846091 16.2041236736 0.5818230756
29 1 16.6994571285 16.7498687772 14.4764493122
30 1 2.2157332211 1.7870626895 0.1032702891
31 1 16.3168973439 15.5384734991 15.1957443142
32 1 12.2556781625 15.2645503875 3.4002785778
33 1 16.5194868332 13.3942492246 1.2649697646
34 1 11.8981430701 16.2612871028 2.6797157538
35 1 14.6431601288 14.9417760329 2.7341967666
36 1 14.260104595 0.8339752802 2.2795022589
37 1 1.090275968 15.1668105517 2.5228140279
38 1 16.7937604543 15.835134412 2.0405692858
39 1 13.9560364359 13.6451951999 2.8919659675
40 1 3.1541897051 13.7175174744 0.0683301485
41 1 0.8924571514 12.71406332 1.3576368704
42 1 3.8633445832 15.0489805739 0.5165727946
43 1 3.0347358434 14.0900859434 2.3065824912
44 1 5.8431102559 13.3927660174 3.0747555069
45 1 1.3652985966 16.0159212872 3.6362192609
46 1 1.1207573733 11.3622549451 0.8505839839
47 1 13.4255387933 1.6858719307 1.4555129343
48 1 15.6126563016 1.4295062528 2.5525526458
49 1 16.4397704882 0.1470003658 2.8005629136
50 1 0.5666377997 4.0636358187 1.9489459396
51 1 13.8656773703 0.5454975336 3.6692402851
52 1 0.1811523047 15.5313472095 4.4740672041
53 1 1.7993437337 0.3483906777 2.772764322
54 1 1.2765034096 1.766414361 2.6923320962
55 1 2.8094448371 0.6373070943 3.6991861774
56 1 5.0154627836 3.616815311 1.3705299561
57 1 1.0711579655 2.0525187267 4.2851544511
58 1 4.367123848 1.3582645237 2.0084184416
59 1 4.6023687343 16.7919705972 5.00106696
60 1 2.1251463827 1.1507200288 4.8984854656
61 1 15.9440695812 2.7574722393 14.7534363889
62 1 14.7575563393 6.1987288319 14.3989642358
63 1 0.3922853868 4.0049687558 12.5154549212
64 1 0.190473322 1.337411838 16.3327226852
65 1 15.6500982448 2.7250969565 0.1706298767
66 1 15.4116163678 4.0430007404 15.3635343642
67 1 16.3875476186 4.5221141443 0.9480043318
68 1 16.6248358616 5.7568213298 14.1563407324
69 1 1.076869906 5.8064138043 14.4701304899
70 1 2.5655408374 1.5728402077 15.6599881474
71 1 0.7654017814 2.0548660141 13.8227801195
72 1 3.3043623174 6.1848787163 13.8852239474
73 1 16.4442219917 3.8829451399 16.5267165321
74 1 0.8247840869 3.3772509355 16.1182524727
75 1 15.6006401488 2.4799870308 8.6001416897
76 1 10.7268845264 0.7156436034 8.6587879687
77 1 7.9920339647 15.4642892288 9.9273484812
78 1 11.1253362177 15.4837473438 8.9940165816
79 1 9.5428817403 15.1872747853 9.2887345695
80 1 7.4703992946 14.1845694778 10.3770100787
81 1 10.2284646895 15.5615409922 11.8451958402
82 1 3.4956422153 13.0430011916 14.2072928414
83 1 5.0795608488 8.399075964 14.6856886388
84 1 10.6776790906 14.2099890634 11.3616607903
85 1 13.771320128 13.5080767089 11.4657699604
86 1 12.9949262971 11.4583475008 12.9792945189
87 1 11.6948896049 12.2217160238 11.0458686213
88 1 8.6274062444 13.3571055918 10.1326171359
89 1 10.5352068327 11.8593924769 10.1135949025
90 1 14.2717975432 11.2322108934 12.2398205375
91 1 14.2536625759 1.9115020699 4.2645069912
92 1 15.3103954165 3.7986760979 1.5990349027
93 1 12.9682588485 3.8784162557 2.7355053334
94 1 14.1152536916 4.0256637586 0.6960787781
95 1 16.843019246 7.6369313442 16.8874173956
96 1 13.8478135374 5.410645205 1.0023632286
97 1 15.1586341246 4.6109086433 2.8053288695
98 1 15.6082627851 7.0909552507 16.3344512107
99 1 14.4801691866 7.7543355831 16.6551716385
100 1 2.0312713718 0.3974815374 0.424285038
101 1 0.5051353608 2.5871954671 1.691153205
102 1 0.4785097078 6.3013498502 0.2309126081
103 1 16.2086751154 5.9074808384 1.1501275064
104 1 4.12200328 4.4990420483 0.5541434047
105 1 15.9638404945 2.4443374877 1.5465741379
106 1 15.660329539 2.2320223268 3.8257100488
107 1 9.531992937 11.7725843938 6.0818009653
108 1 9.3357814129 12.4090729662 3.7126331384
109 1 11.4466383604 12.8768130535 2.6972923083
110 1 10.4355293502 7.129226221 3.5293335285
111 1 8.5685767347 15.0012525875 3.044087536
112 1 10.989752019 12.9824065789 1.3780073503
113 1 11.6061536842 11.2891908695 3.0176164466
114 1 7.5945974755 7.2153123744 15.2870219215
115 1 9.70947775 3.5732735238 0.1477349246
116 1 6.545698582 3.6464558065 15.0321306887
117 1 6.5364288034 6.3319448486 14.6847024799
118 1 7.8373398142 5.76361877 11.2909374878
119 1 7.0863820988 4.9304315001 14.5314830001
120 1 9.9617308775 8.1731086008 15.1466674795
121 1 2.8010742 10.5019918329 12.1051473718
122 1 7.0620150637 13.3909441672 14.2593212213
123 1 5.9391913051 14.5855447558 16.6180566937
124 1 3.2741739664 13.6123536414 12.787340447
125 1 4.3548056007 8.8658323944 12.7938996804
126 1 6.9411023733 8.373392255 13.437326041
127 1 5.7787805445 7.4448141555 13.8264960097
128 1 9.4285797957 0.7282625501 15.1124378061
129 1 10.4606372892 16.5317319945 15.1115882521
130 1 13.9876268686 1.5799940016 12.9478943254
131 1 11.7218574088 0.0753769818 14.5391196878
132 1 8.6053364128 0.6621810066 16.4098867063
133 1 10.6379835531 0.7268120595 12.3707634424
134 1 11.414326604 0.0827063379 9.923118632
135 1 12.5345676556 7.1077702671 0.2236373148
136 1 1.3959753261 9.3347362716 16.0613279565
137 1 16.5905430034 8.9551405779 13.6875997574
138 1 14.2432933165 9.2909566731 16.8973579386
139 1 15.8685201099 7.9647666327 3.2325231862
140 1 11.0268230722 10.8964872122 0.7754091028
141 1 15.734344702 10.7533643515 14.9492248658
142 1 16.1560748487 8.8591906279 4.2047377793
143 1 11.9336637457 12.1053171025 0.6499349589
144 1 1.3060189993 7.3050515654 14.6160957081
145 1 2.6299870694 12.2846738993 15.2017885742
146 1 2.5198301046 12.9784101769 11.6839181924
147 1 1.3683041675 9.9378959356 12.1932355589
148 1 0.3386532346 8.5502496815 15.9653393396
149 1 16.4247221838 13.8747770839 16.7267827039
150 1 0.263854536 13.3861966995 15.4144749768
151 1 8.9787966177 5.0274917405 9.6229383075
152 1 4.7621151434 9.1896252665 9.3193196983
153 1 7.4698203459 8.393587572 9.7151286993
154 1 5.6968004911 10.2141621442 9.9164177217
155 1 8.6430897887 6.9622167333 13.2048931285
156 1 9.5716572171 16.5749074058 6.6713862259
157 1 10.3633432695 2.203281697 8.81652995
158 1 1.1553316199 3.0976871879 11.6704331916
159 1 1.2082914757 16.7379365494 12.5944960763
160 1 16.1116122962 8.3794056375 8.0928223391
161 1 15.4968132789 7.9750375923 5.4441965436
162 1 16.2161967314 10.8166301447 7.5745247215
163 1 16.3555605736 9.1096099129 10.4117391714
164 1 13.8991390157 9.688947693 6.7386739489
165 1 9.0877091922 13.0654273513 6.3833907887
166 1 13.9100035438 12.1864979546 10.4743267049
167 1 14.9886287453 10.5461235887 2.6596977247
168 1 14.9123399032 9.644579326 14.7519518249
169 1 15.8124988038 13.4356875382 4.7197967785
170 1 15.4635154996 12.4051433589 1.4617580441
171 1 13.649346503 9.4183981536 15.462711387
172 1 15.4518625394 10.0879926729 0.3534017149
173 1 15.2333306277 11.5516827532 0.183062073
174 1 0.7512996989 11.4001612184 16.3285957969
175 1 1.7737580642 13.3745593967 0.3167629261
176 1 16.282860453 11.0276551813 16.3155380245
177 1 1.2220130006 10.4615286291 15.2028567299
178 1 4.6327176836 8.4820288324 0.1403761602
179 1 15.8945861857 9.8445037415 1.6844626246
180 1 0.2663624836 10.5412494494 1.8872848849
181 1 7.2062422876 0.0055700472 13.8413599086
182 1 6.5957443406 14.8091824185 14.4749618741
183 1 4.1779062618 14.246282948 14.7586064113
184 1 5.1363329392 13.5290425929 15.7839484789
185 1 4.2534374376 14.7599317605 1.9493711393
186 1 3.3800322818 11.5877176213 16.2828253757
187 1 2.7674466273 14.9462630751 16.4483392972
188 1 10.391494584 2.7902025882 7.395649217
189 1 10.8281261018 4.8540304029 11.1127064609
190 1 9.6297996943 4.1570219672 11.9678809108
191 1 12.8850147131 2.071607351 9.168848547
192 1 11.7287668942 3.0418276387 9.379385282
193 1 11.980024847 6.6672102636 10.0655584967
194 1 8.3637049548 4.9409763755 15.2051509484
195 1 5.1783904139 0.5030410985 13.3715049612
196 1 8.4754058931 0.7790303485 14.0681708867
197 1 9.748862035 1.7378262659 1.3017506361
198 1 2.0617930889 15.1840140331 1.5683263223
199 1 6.149389588 0.8559733765 14.532443123
200 1 3.388086216 16.5326357193 15.0492311548
201 1 4.6337234973 16.6152952205 15.6521068219
202 1 2.0249970375 4.3457615505 16.1001993226
203 1 1.1554054493 16.608468341 15.2121127268
204 1 5.8413888947 12.6166983777 14.7709426121
205 1 5.8719740044 7.421265288 11.3228491044
206 1 6.0993714464 11.5131340453 12.0482247154
207 1 7.4976028401 6.3374078819 12.5507569769
208 1 7.6316902303 9.9594576685 11.6193397438
209 1 12.9475906548 9.5488022274 9.2902984252
210 1 8.87988402 10.694380336 9.1524826704
211 1 4.5549432224 12.4522468128 1.2053274025
212 1 5.2786755942 13.7542186471 1.7943568604
213 1 4.9641014099 15.6233520903 16.7624184948
214 1 3.9115908745 0.0869401719 1.5655884928
215 1 8.496078355 15.0275207096 13.0999311921
216 1 7.9204729348 16.0116380626 1.02262762
217 1 7.7654077054 14.6025016706 1.5183116137
218 1 8.7345987853 13.8035164597 0.7307195172
219 1 4.3570713125 16.0977688598 2.6447012785
220 1 1.1508791663 12.010899188 13.5676385008
221 1 0.5625860857 10.8623459942 12.9853058111
222 1 3.0501639788 8.8876990276 13.6641338069
223 1 1.3359298376 12.8661898978 12.4547304893
224 1 0.3439880305 15.4523827315 5.9004070614
225 1 1.926358141 7.9321382826 13.4151311248
226 1 2.9574433124 11.6936635011 11.1655308011
227 1 2.4710850433 16.6679657775 1.5397142891
228 1 5.2676758603 16.6317789889 0.9451511997
229 1 7.1170969957 1.2643291347 2.0681059949
230 1 6.4144686312 3.1524442617 0.8119409238
231 1 2.5399645142 2.5463925615 2.4146469482
232 1 6.6843519602 5.4286003559 5.6360662518
233 1 5.5894420112 16.7076020854 2.6708874926
234 1 10.0004597216 7.3874314266 8.5740750049
235 1 12.7410727219 7.0558956533 8.9103645037
236 1 9.6207463369 8.4132030645 9.7088095389
237 1 8.8367632963 6.3191850933 10.3415783497
238 1 11.2319054794 5.4926498094 9.710482949
239 1 8.3142737559 3.9952039446 10.0316872422
240 1 9.7171654322 4.4715921572 13.4724561571
241 1 4.774570954 3.6913655803 16.3365905653
242 1 3.8586067292 6.4307465494 12.5709679097
243 1 5.9790627044 6.2625063528 15.9713746391
244 1 4.2034584487 3.289112696 15.0637486385
245 1 3.7987082712 1.9529795777 15.1510133076
246 1 2.9403392271 2.6992505368 0.9493478614
247 1 0.9547730741 2.3101015865 0.2756750102
248 1 13.0937602825 7.8673405942 13.6799410912
249 1 11.0436325662 6.3322723224 15.7480318702
250 1 11.0588357475 6.5993561719 13.2353328609
251 1 8.185894813 5.20006025 16.5908430687
252 1 12.1554715413 7.8332032699 11.6781706424
253 1 11.6666185707 7.985424572 13.0599269182
254 1 9.6985929384 7.4644195971 10.865307534
255 1 7.1498575734 7.7382722033 12.0856777912
256 1 11.1289633702 7.9172868417 10.7411238669
257 1 8.8830005115 9.2953364159 12.121543173
258 1 6.9555856107 9.4960858161 10.5895663009
259 1 6.7457566701 6.3893443432 9.3322271714
260 1 11.9618465507 11.2405768736 6.6982627344
261 1 14.5896373529 10.5042273829 7.8759316161
262 1 8.7927762125 12.7694775488 12.4163789996
263 1 11.1041931562 12.7266240802 13.2620796961
264 1 7.8481065614 6.7724730818 1.2029320828
265 1 6.5608162914 7.5407532343 16.2514635601
266 1 4.2045577464 10.5238018488 15.8294800105
267 1 6.7371531148 5.2560840453 16.8424623772
268 1 6.2113163566 3.9005383021 16.4925083301
269 1 9.0791444763 8.9963345331 14.3233682971
270 1 8.7205097289 7.8864463545 12.0107826288
271 1 4.2806518593 2.3238833588 0.9770839833
272 1 3.8249664192 4.4512662496 3.3542914147
273 1 5.4971616285 0.8874868991 15.8600044448
274 1 6.1376286051 4.8975745559 3.1171045499
275 1 4.7194196805 2.0581103394 16.4291603401
276 1 4.3726441341 5.9156159438 0.3835579753
277 1 7.981057298 1.9902653555 16.5956147728
278 1 7.4159871664 2.578817388 2.9349170527
279 1 4.9625418617 6.7685958557 4.1167459596
280 1 6.2175611863 0.4955494916 0.1263750769
281 1 2.7924997489 1.4653617694 12.8093968986
282 1 6.5570011159 0.4445010088 12.5680189005
283 1 7.3810984024 1.8837008163 14.199631132
284 1 6.702577281 16.6071975801 11.3404246445
285 1 3.0244342815 2.2096215694 10.5536846887
286 1 5.0664556703 2.8779306092 9.5667784745
287 1 12.3387345087 8.4006518174 8.3432931858
288 1 14.7181789426 8.2920915392 8.4459592129
289 1 14.593049904 4.0279213083 9.5969328244
290 1 13.240540293 4.8158950654 8.1616581946
291 1 11.7849322539 7.2758463331 5.7117477376
292 1 12.1707123774 4.4495612235 9.249188294
293 1 15.720513615 2.9312823108 5.9010096108
294 1 7.1298093409 5.671448537 1.2751104305
295 1 4.5487811427 6.1312854877 15.8280432921
296 1 3.9889150458 7.2582460012 2.0291401212
297 1 3.7702791712 7.2449328452 0.6017854314
298 1 7.7791164951 2.7827490686 15.1916387281
299 1 6.3052286549 4.5534481448 4.5047392325
300 1 5.268581198 6.6474066014 1.7591866758
301 1 10.8803675251 10.3958993588 12.3990568886
302 1 8.3386979931 11.6096266975 13.2167950001
303 1 9.3046465578 11.209412948 10.5515926725
304 1 7.1404847842 10.8351321648 12.7132157161
305 1 8.4398624948 12.2741692334 11.0770877456
306 1 8.593195094 10.2374958285 14.9561401512
307 1 9.8873402271 9.9964737771 11.4102522381
308 1 9.3955775764 8.4499573228 1.4606136061
309 1 6.6513423825 9.8055447798 13.6398370687
310 1 5.1626524424 9.5936851204 13.7681843113
311 1 4.3160158525 10.6506384418 14.3690896893
312 1 7.0997164487 10.2248894346 14.9790601892
313 1 5.6277481519 8.5044799119 15.9850112917
314 1 7.3809798798 12.0819794323 16.4031999975
315 1 3.4204953432 7.0294315111 15.0917839218
316 1 2.9894584124 10.3826444187 13.6408480802
317 1 8.8083514037 12.292047597 1.0785918273
318 1 4.1226205247 5.2673523248 14.6687846268
319 1 3.6627251262 8.4166370277 14.9324023434
320 1 3.6090324566 9.1877807192 16.1587811877
321 1 2.5695116615 11.148669955 0.5410593258
322 1 1.6364092931 15.2931410768 14.4116742405
323 1 2.0847966578 11.2424905578 14.3777231871
324 1 13.2306263433 15.2759483471 13.3114669351
325 1 12.6510172975 15.8412567638 14.599999829
326 1 14.462120053 14.8552824113 10.9449250333
327 1 13.7218789503 14.4997552257 7.6582795912
328 1 16.4563647242 13.7062833337 10.8679265273
329 1 12.6022147617 13.5846481343 9.6751130981
330 1 14.4272883105 12.6047670421 9.2198155338
331 1 2.4926084641 4.0027333312 13.6098416403
332 1 6.6829058298 5.0899071027 13.1583664774
333 1 5.2471780652 3.4774477137 14.0502191759
334 1 3.0767008084 4.1471306853 14.9337376225
335 1 7.4138138851 2.5751615216 12.9048137361
336 1 4.3897532711 5.0337774951 12.2819781984
337 1 4.5342366896 2.7757334976 12.9508818815
338 1 3.4601897483 3.7713901477 12.4483998324
339 1 2.2600202539 0.4969122191 14.808930273
340 1 8.5434110046 6.2654843352 15.7640335798
341 1 6.0943287089 7.8954964429 1.570893869
342 1 7.5176799136 10.2259227303 1.2547151486
343 1 2.371745839 7.5713776587 0.318935164
344 1 5.546091513 10.7868428812 16.4496159106
345 1 2.719852823 4.1734681389 0.6432313267
346 1 2.4041641294 9.0194380868 0.0464368418
347 1 4.1332779581 12.813486344 16.7691927795
348 1 6.4401180515 11.5257431198 15.523312063
349 1 6.495164946 9.6297001066 16.2049487437
350 1 6.4169999092 13.9696803684 0.952766974
351 1 2.8058509261 9.9541009415 1.0898374544
352 1 5.2535982356 9.0710117708 1.4798541706
353 1 7.5462440324 9.0752675044 0.2555093024
354 1 13.7656671564 6.5793831473 13.3558459473
355 1 12.5845542942 10.399425935 15.0845386206
356 1 11.6398762183 11.6654529096 12.3618611305
357 1 16.2109147791 11.2437198427 9.6837195454
358 1 15.054255209 9.1919208895 13.5049042184
359 1 12.7481270961 10.0727141331 13.584168709
360 1 12.7840619213 11.7784961504 15.413375713
361 1 10.4270667671 5.9498869413 8.4822876651
362 1 12.0130914505 3.881307452 10.7391924629
363 1 9.3316454878 5.0451664682 8.3117176714
364 1 10.1006690795 10.4460151919 8.2396440429
365 1 10.9020428945 8.0703638308 7.6983019551
366 1 11.2543835906 5.8297311154 7.2443094073
367 1 9.4099772667 6.7968742633 5.9245540077
368 1 12.1993565453 13.7382347416 11.1173970136
369 1 16.6423086069 1.0630439419 10.1054079066
370 1 10.4025623755 15.1769571946 14.6062699605
371 1 14.7655285159 15.209661091 13.5151893169
372 1 15.6748786958 0.2494756313 12.1598557777
373 1 11.8271218439 14.0283079058 16.0476069403
374 1 14.5168658459 12.8716636587 14.3332016526
375 1 10.0950721003 3.2613621776 15.6145335406
376 1 11.7356502903 6.3666941506 14.4544931165
377 1 12.1943731558 4.5893335329 13.0710078079
378 1 12.4157055794 2.1987036726 16.4351220961
379 1 11.0930001542 4.1150178817 13.8732155645
380 1 11.3693964501 4.1001412028 15.4733396884
381 1 9.7876156219 2.7178604128 11.6870602744
382 1 11.4256574226 9.4749936299 13.2330153113
383 1 13.4769128328 8.3670204292 7.3171893091
384 1 13.3283059444 0.0144740788 16.846122814
385 1 10.5811600052 14.7351139317 16.6358684183
386 1 9.6998995408 0.3469454298 0.5132907264
387 1 11.8603035275 1.4067329259 15.2050557646
388 1 10.711061463 16.4304966237 16.5959544253
389 1 13.1010377375 3.1830525775 1.3956923434
390 1 12.6400998873 3.4089670956 15.5303859318
391 1 14.634226017 12.3756356596 6.7722062271
392 1 8.1780096701 11.8093564498 8.5233883287
393 1 12.5976835722 12.0483436981 10.0428009306
394 1 6.8796079961 13.8557647584 11.6469621692
395 1 10.3768779953 13.0510871079 9.2008254228
396 1 8.0921688845 16.3857400871 11.0025102573
397 1 7.7714182175 13.7372535597 12.8646650803
398 1 3.4321627454 12.5340871675 8.9333257937
399 1 3.5259547237 16.2848395507 9.9929262759
400 1 11.719951348 12.5731394565 16.1696426304
401 1 8.2648157663 14.327368733 16.1660085679
402 1 12.6800312868 14.9607479549 1.1611944651
403 1 12.8440710753 14.3366693004 0.0508707801
404 1 14.6192760059 16.0418380578 3.8979606888
405 1 11.6634790507 15.8557906736 1.427929766
406 1 9.1188380267 11.6882648682 2.4296706139
407 1 8.3571414657 3.6522525696 7.1598383762
408 1 10.1402106359 0.7837879503 5.6822671136
409 1 10.8637295601 0.0437007068 7.3305099782
410 1 11.5115703178 0.6661741702 6.1726920889
411 1 9.1753572162 0.5875520814 3.4447548027
412 1 9.4963042509 15.2571403298 5.8957034907
413 1 14.5499591901 15.1557048026 9.4806700442
414 1 12.045708755 1.1799855074 1.4626550379
415 1 11.5241875956 0.7241158294 2.7802113183
416 1 11.920340934 16.8160685589 0.4284836777
417 1 12.3805709136 16.7970632343 5.2618017721
418 1 15.0470086561 0.4624019832 6.0094816846
419 1 13.8255537157 16.4497286854 5.8500531061
420 1 11.8102520367 15.4991619248 4.7309914493
421 1 12.5240845889 6.4429543989 11.3899305674
422 1 14.457129158 7.5312135813 11.0803376913
423 1 12.6875740995 6.0976019385 7.6267397497
424 1 16.3465045041 6.4533358192 10.2220923362
425 1 11.5916941793 5.674973903 12.1459271491
426 1 8.0671719923 7.9461896698 14.1563424231
427 1 9.7133006636 6.1989600152 13.7310911759
428 1 12.9017295398 5.5636013476 14.0997103902
429 1 13.8679065694 2.4361872179 14.0557946173
430 1 10.5741711538 3.0615253746 1.1421921645
431 1 13.6977183723 5.6352069433 15.3657760034
432 1 15.9301646171 6.8635781056 14.9323769836
433 1 13.3903787089 7.0831014095 15.9461997748
434 1 13.974261827 4.2171740358 15.9691592051
435 1 11.5344913857 5.1803226647 16.3195663477
436 1 12.8829523511 8.1218082648 15.1011548832
437 1 11.3654474309 9.8320476523 15.6071044653
438 1 11.4630719085 5.6131377886 1.6318247806
439 1 10.1194737773 5.8162802858 1.1802746541
440 1 9.8139315604 6.6921565415 15.214403395
441 1 11.3604562377 8.486132987 15.6272663691
442 1 11.1035103414 10.0851947801 2.0409738595
443 1 9.271172035 4.8430009084 0.5330809736
444 1 5.1531174071 0.7670302704 9.9382043448
445 1 4.895279982 16.1597660291 10.0425759044
446 1 6.3971974736 13.056338306 9.9351456121
447 1 5.0961354119 16.1318080776 7.5613910388
448 1 5.5278129687 14.2358137823 11.5438689136
449 1 5.0148830265 13.3417569931 10.4242802797
450 1 9.0306289948 14.4861094992 8.0612466556
451 1 4.8451336204 13.8202635487 12.6984564687
452 1 7.4214725393 16.5295094261 16.6528427615
453 1 7.1043502968 15.1983392912 15.9254848578
454 1 7.4915995684 15.6059385147 13.89005381
455 1 5.1263616206 14.8407843799 13.8070100297
456 1 4.531861932 2.12007192 10.6029038766
457 1 5.0028770603 12.3098247782 12.6143421658
458 1 3.9866932508 13.7541419881 9.4159013969
459 1 4.6305123577 12.0369391031 13.9224849648
460 1 11.8688647367 2.5554611995 0.7833217561
461 1 8.6745728325 2.7173828341 0.777172219
462 1 10.420060261 3.7880642697 2.439273026
463 1 9.9751361009 2.8127532219 3.4640029076
464 1 11.6414515651 4.5917510673 2.7338023368
465 1 9.9984671906 1.4661879683 2.7501125909
466 1 10.7585593539 2.7463826284 4.7149461208
467 1 10.8877777826 8.5104228921 3.9028955411
468 1 9.445758886 4.9041499441 2.126992516
469 1 12.4737940668 5.6915064137 0.566864331
470 1 16.8198725892 8.00134446 14.7178347492
471 1 5.1026598456 3.8960982965 2.7458174824
472 1 11.0718634393 6.3595219651 4.559260652
473 1 11.2229560151 6.9321314348 2.256365648
474 1 2.193927598 6.9415749503 15.836914496
475 1 0.4055878762 4.4451001326 9.6666772378
476 1 5.1523892027 4.8780113061 13.5506873195
477 1 15.7892843041 3.0152650565 11.2170004196
478 1 3.5761800796 4.3553543912 8.1831105752
479 1 15.4326890775 4.9239458953 14.1527392996
480 1 0.3447613426 2.3162020025 15.2151646968
481 1 10.1092688938 13.521271309 12.6275165933
482 1 7.9902650545 13.0466065045 15.4241155977
483 1 8.9261989387 8.9048052827 0.0262553974
484 1 9.1846231997 11.2914818082 14.1112550265
485 1 9.1142466569 10.2733834352 16.4003443125
486 1 14.0300527984 15.2944706823 1.4983216664
487 1 8.2013248476 11.1843964918 0.2784395013
488 1 11.5600674951 14.0041310193 8.8057574358
489 1 13.8871640235 15.9384205366 7.2157753809
490 1 12.426223953 13.9278120082 7.5741171046
491 1 10.2278253174 15.5740049961 4.6005944568
492 1 10.4079555116 13.4914957887 3.5989367722
493 1 14.4274321892 9.6433457261 8.9452234387
494 1 11.9173833327 12.6404924044 7.1355803539
495 1 8.7233404316 1.9931821831 12.4168036921
496 1 8.9991294756 3.7689660405 14.7568116121
497 1 10.4406676491 1.9288744038 14.9867935824
498 1 11.0178774207 2.0809084379 12.2372847244
499 1 9.9138673826 14.0494038656 10.1818780829
500 1 10.4435001786 0.0325985362 11.0348700665
501 1 13.5827970422 16.1772092812 9.3582952087
502 1 11.6730679172 15.9439182054 7.6716778615
503 1 9.1189120746 0.5938054218 10.4907294378
504 1 11.2386503314 7.517991069 16.7343859166
505 1 11.7786388149 14.6253272873 14.7425857664
506 1 9.9792577798 14.9085202006 13.2907611476
507 1 10.2939583025 12.1692150975 14.3756551781
508 1 10.4834380399 10.6853597904 16.3063887079
509 1 12.2492121998 13.6727245301 13.7217692435
510 1 13.9059494322 14.6793793349 15.9957046833
511 1 8.3517470561 7.5364914727 2.309935905
512 1 9.6477239707 9.5767492208 2.373126326
513 1 13.0388707339 7.9222861554 1.3284408174
514 1 7.0952129384 7.8030181978 0.6008358921
515 1 6.9284303623 12.4561207224 2.9188090009
516 1 10.0978867741 11.8638882839 1.3319584107
517 1 12.9556644403 10.9400840598 3.2565281174
518 1 10.3548328896 7.3415129223 1.1496116707
519 1 9.6281776559 14.4511061928 15.6068354821
520 1 15.3531963685 0.5376277242 14.4878473688
521 1 1.3209156076 3.2383940423 13.2689611684
522 1 15.2635731423 1.0636218213 13.176444142
523 1 13.5600078966 2.4402456136 11.8078685491
524 1 0.7731012923 16.8392756657 10.1065154546
525 1 14.3430756196 2.6270251921 9.4668098871
526 1 12.9026771691 0.6792847175 12.5881283941
527 1 2.3732595554 15.3249733648 8.4007326754
528 1 3.1160451161 9.0442452054 10.8038557824
529 1 2.5267221692 11.6588367256 9.7702771826
530 1 4.0753750096 9.7512810253 11.6640005882
531 1 1.6233999368 5.8846899716 12.0261587961
532 1 5.1151998282 10.7927110261 11.1143524825
533 1 6.7985066627 12.3604112307 8.8098790831
534 1 14.3565048362 13.2199338203 15.705901767
535 1 13.294411417 11.8970136346 1.0197855447
536 1 10.5154601891 12.0339437521 15.7520311142
537 1 9.4803714016 13.0764371062 15.2637035652
538 1 12.8324981193 9.6149757202 3.7809247722
539 1 13.5367667279 9.3305806029 1.2846141421
540 1 15.5965089296 11.8600562489 2.84032069
541 1 16.0582763179 14.5752850322 2.3971321026
542 1 14.7923074369 12.7565746928 3.7539953463
543 1 16.0285358723 14.4621137814 7.8337819013
544 1 16.0265631573 15.1647223165 6.5483780712
545 1 2.9176002994 2.523454795 6.7754815326
546 1 16.1091355996 12.1535445747 6.9802068109
547 1 16.5053611798 13.1768277101 8.1395314117
548 1 2.627955165 15.4776887063 4.3146954315
549 1 3.3841505212 13.0826997027 4.4680621673
550 1 1.1494536789 12.9832673314 5.7251353567
551 1 2.213489522 16.826367539 6.0047588405
552 1 3.6600448936 16.3839170275 3.9226349503
553 1 0.6326855138 16.9029910008 6.3620171926
554 1 2.4644323959 15.3760822801 5.7602886348
555 1 16.7089187374 14.2176674828 3.8297994046
556 1 16.118456689 16.5000362145 4.1305239509
557 1 15.8429565498 3.7621338902 3.7637960721
558 1 15.239670346 16.3715991177 7.0673039361
559 1 16.3172482913 0.5432133461 5.2964940086
560 1 14.7498769638 2.1768862494 10.8688944272
561 1 0.3218231402 4.2440892228 3.4596001043
562 1 1.5225040636 3.0154472133 6.6173684526
563 1 13.6725934863 2.2676934305 6.8699336825
564 1 3.8584120325 15.1837989942 7.6026868038
565 1 2.4070619976 3.6825139403 8.821926182
566 1 4.9766619621 6.6381309031 5.6174384481
567 1 15.9128449014 15.4342544976 8.9389619296
568 1 12.3774935275 1.641287374 11.5141475403
569 1 15.7141226235 15.7152199701 12.4773607491
570 1 3.3127625704 5.933268416 9.748471117
571 1 10.3332883657 15.2618757064 1.7959793818
572 1 12.779416345 14.5092124548 5.3520923751
573 1 14.6102445813 1.9199210643 5.8910741397
574 1 12.2959106881 1.7584358178 6.6259990763
575 1 15.9543156662 16.6828215027 8.2429534997
576 1 13.4244843642 15.9103593654 11.0114722494
577 1 12.1253365228 2.19030195 4.3557900087
578 1 12.3978541938 0.7925107832 4.1101077726
579 1 16.3091692248 1.0853587353 8.6317395207
580 1 11.0357851867 13.6350310015 6.3512771389
581 1 13.9026682698 13.9661186315 8.993656134
582 1 12.5258737239 11.6221968544 7.9550253505
583 1 11.07033237 13.0833518006 4.9104314634
584 1 7.9431150462 12.9183217684 3.9735468218
585 1 14.4074448889 5.1610129634 5.3360389315
586 1 11.9832399152 8.8154836375 3.0053062818
587 1 9.7570971541 4.049300332 7.3153475097
588 1 11.6917223116 3.0147514822 6.7922699039
589 1 13.074801182 1.3755578449 7.856468798
590 1 7.6606805598 3.0860018311 5.978463072
591 1 11.266793112 3.8051464974 5.5956574042
592 1 8.6866949065 4.5999249161 4.3609111711
593 1 9.7847877094 2.0989089145 5.8234449046
594 1 1.5672538695 16.7001070648 8.7246874949
595 1 3.0253798554 15.1271888593 15.0774491978
596 1 3.40135112 15.9509900104 12.3885523431
597 1 0.4366408514 0.2962746055 7.8011426269
598 1 1.5511262708 14.7911896364 0.2566629545
599 1 2.5482087123 3.353345311 11.2221966471
600 1 3.4326546985 1.7631222019 8.0857362976
601 1 1.3006868742 6.9556809907 1.2729544567
602 1 14.9839449406 6.2713853894 0.5060280623
603 1 12.3855400285 4.5126063975 5.0383494487
604 1 16.5691942346 1.922220949 4.9066048353
605 1 16.1012103455 5.8208705901 2.685187389
606 1 13.8122482306 5.109325329 2.542664344
607 1 13.0846607782 3.7052704293 7.0655721984
608 1 0.4942906606 6.3948516599 5.0928686703
609 1 1.6960126847 6.0198476862 2.3539647826
610 1 0.0316492722 3.0911166495 9.2318507981
611 1 1.6903313759 4.0446555538 5.53921557
612 1 3.0858090912 4.3842951798 5.6236301332
613 1 1.89366962 4.6597709978 1.84399364
614 1 3.5210214442 1.8032349117 3.1934048154
615 1 16.4037359469 6.3181005086 12.7862621474
616 1 0.9555701203 6.4910738808 9.8229958569
617 1 16.3671158538 6.0487360855 8.0882991612
618 1 1.4706629612 3.9797772194 7.7703750764
619 1 2.4615058895 7.8493000223 7.5732677197
620 1 3.3620930649 6.7598471387 7.3666779873
621 1 3.6814077448 3.8144584279 6.8294042912
622 1 13.0643501442 9.7835922995 10.7706802323
623 1 13.4680647316 8.5826802606 11.4941039823
624 1 4.9223801154 7.4421641609 12.5217470312
625 1 4.9565417554 8.6392533735 7.9460146676
626 1 3.9644079197 7.1645253115 9.506982212
627 1 6.3271477709 7.7784093875 9.0428249403
628 1 3.2502818826 9.2844915232 9.4169261028
629 1 8.0411191364 7.0432300367 9.4312467943
630 1 6.7415691113 5.5027450324 8.2130273881
631 1 9.7919149036 0.0162510573 4.5408607486
632 1 8.5077776001 2.2039884483 5.1377724618
633 1 3.7123080316 14.8172026739 6.2002715716
634 1 7.84943252 15.415521616 7.8078541883